# vtk DataFile Version 3.0
FEM Results
ASCII
DATASET UNSTRUCTURED_GRID

POINTS 128 float
0 0 0.0
10 0 0.0
10 2 0.0
0 2 0.0
0.5 0 0.0
1 0 0.0
1.5 0 0.0
2 0 0.0
2.5 0 0.0
3 0 0.0
3.5 0 0.0
4 0 0.0
4.5 0 0.0
5 0 0.0
5.5 0 0.0
6 0 0.0
6.5 0 0.0
7 0 0.0
7.5 0 0.0
8 0 0.0
8.5 0 0.0
9 0 0.0
9.5 0 0.0
10 0.5 0.0
10 1 0.0
10 1.5 0.0
9.5 2 0.0
9 2 0.0
8.5 2 0.0
8 2 0.0
7.5 2 0.0
7 2 0.0
6.5 2 0.0
6 2 0.0
5.5 2 0.0
5 2 0.0
4.5 2 0.0
4 2 0.0
3.5 2 0.0
3 2 0.0
2.5 2 0.0
2 2 0.0
1.5 2 0.0
1 2 0.0
0.5 2 0.0
0 1.5 0.0
0 1 0.0
0 0.5 0.0
1.75 0.433013 0.0
2.75 0.433013 0.0
3.75 0.433013 0.0
8.75 1.56699 0.0
7.75 1.56699 0.0
6.75 1.56699 0.0
5.75 1.56699 0.0
4.75 1.56699 0.0
1.27834 1.59073 0.0
2.25 1.56699 0.0
3.30199 1.55809 0.0
8.25 0.433013 0.0
7.25 0.433013 0.0
6.25 0.433013 0.0
5.25 0.433013 0.0
0.421848 0.769338 0.0
9.24788 0.423386 0.0
9.60465 1.28162 0.0
0.422708 1.24906 0.0
0.821607 1.0123 0.0
0.80836 0.461799 0.0
1.28966 0.772957 0.0
8.74965 0.431408 0.0
8.49994 0.844572 0.0
7.99999 0.841264 0.0
8.25 1.29904 0.0
4.25 0.433013 0.0
4 0.866025 0.0
4.5 0.84484 0.0
3.51085 0.858864 0.0
4.25 1.29904 0.0
9.00265 0.807649 0.0
7.75 0.428886 0.0
7.5 0.840025 0.0
7 0.840506 0.0
7.25 1.29904 0.0
6.75 0.42876 0.0
6.5 0.839878 0.0
6 0.840482 0.0
6.25 1.29904 0.0
5.75 0.428755 0.0
5.5 0.839873 0.0
5 0.83695 0.0
5.25 1.29904 0.0
1.75472 1.57729 0.0
1.99677 1.16465 0.0
2.49946 1.16027 0.0
2.25 0.700962 0.0
2.75 1.56699 0.0
2.96691 1.18557 0.0
3.71152 1.26266 0.0
3.27449 0.418723 0.0
4.75 0.428739 0.0
0.790597 1.53004 0.0
9.27932 1.61378 0.0
9.5526 0.785971 0.0
1.53182 1.19442 0.0
1.2696 0.333554 0.0
1.75287 0.848475 0.0
3.83558 1.63565 0.0
2.72892 0.846203 0.0
2.25 0.305899 0.0
4.26712 1.70033 0.0
4.75 1.16937 0.0
8.74141 1.15174 0.0
8.25 1.6941 0.0
7.75 1.16927 0.0
7.25 1.6941 0.0
6.75 1.16909 0.0
6.25 1.6941 0.0
5.75 1.16908 0.0
5.25 1.6941 0.0
0.366025 0.366025 0.0
9.63397 1.63397 0.0
9.63397 0.366025 0.0
0.366025 1.63397 0.0
9.17891 1.2004 0.0
3.11726 0.807027 0.0
3.34237 1.1727 0.0
1.1455 1.22424 0.0

CELLS 206 824
3 4 5 68
3 98 78 107
3 107 78 110
3 4 68 120
3 79 103 124
3 79 64 103
3 66 67 101
3 48 95 106
3 101 67 127
3 78 55 110
3 55 78 111
3 54 91 118
3 91 54 119
3 95 48 109
3 53 87 116
3 87 53 117
3 52 83 114
3 83 52 115
3 51 73 112
3 73 51 113
3 95 49 108
3 49 95 109
3 73 52 114
3 52 73 113
3 83 53 116
3 53 83 115
3 91 55 111
3 58 98 107
3 54 87 117
3 87 54 118
3 55 91 119
3 103 65 124
3 48 69 105
3 46 47 63
3 90 76 100
3 62 89 90
3 46 63 66
3 61 85 86
3 24 25 65
3 62 88 89
3 14 15 88
3 74 12 100
3 61 84 85
3 16 17 84
3 76 74 100
3 62 14 88
3 60 81 82
3 61 16 84
3 66 63 67
3 60 80 81
3 62 90 100
3 58 96 97
3 15 61 88
3 90 89 91
3 57 94 96
3 60 18 80
3 96 94 97
3 70 64 79
3 86 85 87
3 18 19 80
3 17 60 84
3 59 70 71
3 59 20 70
3 40 57 96
3 42 56 92
3 71 70 79
3 21 22 64
3 82 81 83
3 94 93 95
3 57 92 93
3 21 64 70
3 61 86 88
3 57 93 94
3 57 41 92
3 58 39 96
3 19 59 80
3 72 71 73
3 40 41 57
3 42 43 56
3 38 39 58
3 60 82 84
3 88 86 89
3 59 71 72
3 41 42 92
3 39 40 96
3 84 82 85
3 13 14 62
3 15 16 61
3 17 18 60
3 20 21 70
3 19 20 59
3 80 72 81
3 50 75 77
3 59 72 80
3 67 63 68
3 11 12 74
3 27 28 51
3 29 30 52
3 31 32 53
3 33 34 54
3 35 36 55
3 75 78 98
3 10 11 50
3 6 7 48
3 8 9 49
3 9 10 99
3 75 76 78
3 77 75 98
3 12 13 100
3 50 77 99
3 10 50 99
3 49 9 99
3 67 68 69
3 75 74 76
3 50 74 75
3 50 11 74
3 13 62 100
3 45 46 66
3 102 51 124
3 51 112 124
3 98 58 126
3 23 24 103
3 43 44 101
3 26 27 102
3 95 93 106
3 93 92 104
3 24 65 103
3 56 43 101
3 27 51 102
3 69 48 106
3 6 48 105
3 92 56 104
3 90 91 111
3 91 89 118
3 87 85 116
3 94 95 108
3 83 81 114
3 38 58 107
3 55 36 110
3 72 73 114
3 73 71 112
3 8 49 109
3 48 7 109
3 82 83 116
3 29 52 113
3 51 28 113
3 31 53 115
3 52 30 115
3 33 54 117
3 53 32 117
3 35 55 119
3 54 34 119
3 86 87 118
3 78 76 111
3 47 0 120
3 0 4 120
3 1 23 122
3 22 1 122
3 68 63 120
3 25 2 121
3 2 26 121
3 3 45 123
3 44 3 123
3 49 99 125
3 67 69 127
3 56 101 127
3 68 5 105
3 108 49 125
3 5 6 105
3 69 68 105
3 69 104 127
3 93 104 106
3 101 44 123
3 23 103 122
3 26 102 121
3 76 90 111
3 97 94 108
3 37 38 107
3 37 107 110
3 7 8 109
3 36 37 110
3 71 79 112
3 81 72 114
3 28 29 113
3 85 82 116
3 30 31 115
3 89 86 118
3 32 33 117
3 34 35 119
3 63 47 120
3 64 22 122
3 65 25 121
3 45 66 123
3 77 98 126
3 104 69 106
3 58 97 126
3 99 77 125
3 66 101 123
3 102 65 121
3 103 64 122
3 125 77 126
3 97 125 126
3 65 102 124
3 104 56 127
3 112 79 124
3 97 108 125

CELL_TYPES 206
5
5
5
5
5
5
5
5
5
5
5
5
5
5
5
5
5
5
5
5
5
5
5
5
5
5
5
5
5
5
5
5
5
5
5
5
5
5
5
5
5
5
5
5
5
5
5
5
5
5
5
5
5
5
5
5
5
5
5
5
5
5
5
5
5
5
5
5
5
5
5
5
5
5
5
5
5
5
5
5
5
5
5
5
5
5
5
5
5
5
5
5
5
5
5
5
5
5
5
5
5
5
5
5
5
5
5
5
5
5
5
5
5
5
5
5
5
5
5
5
5
5
5
5
5
5
5
5
5
5
5
5
5
5
5
5
5
5
5
5
5
5
5
5
5
5
5
5
5
5
5
5
5
5
5
5
5
5
5
5
5
5
5
5
5
5
5
5
5
5
5
5
5
5
5
5
5
5
5
5
5
5
5
5
5
5
5
5
5
5
5
5
5
5
5
5
5
5
5
5
5
5
5
5
5
5

POINT_DATA 128
VECTORS displacement float
0 0 0.0
2.60215e-08 1.2814e-09 0.0
2.60422e-08 -1.3113e-09 0.0
0 0 0.0
1.31124e-09 5.72124e-10 0.0
2.49671e-09 7.20425e-10 0.0
3.69448e-09 7.57531e-10 0.0
4.92479e-09 7.59186e-10 0.0
6.16677e-09 7.54537e-10 0.0
7.41543e-09 7.51425e-10 0.0
8.66545e-09 7.49774e-10 0.0
9.91562e-09 7.49137e-10 0.0
1.11657e-08 7.488e-10 0.0
1.24158e-08 7.4858e-10 0.0
1.36657e-08 7.48422e-10 0.0
1.49155e-08 7.48302e-10 0.0
1.61648e-08 7.4793e-10 0.0
1.74134e-08 7.46136e-10 0.0
1.86618e-08 7.39678e-10 0.0
1.99146e-08 7.20503e-10 0.0
2.1191e-08 6.80283e-10 0.0
2.25429e-08 6.27187e-10 0.0
2.40887e-08 6.92046e-10 0.0
2.46264e-08 7.10931e-10 0.0
2.4377e-08 5.03248e-12 0.0
2.46301e-08 -7.39826e-10 0.0
2.41072e-08 -7.04883e-10 0.0
2.25406e-08 -6.29054e-10 0.0
2.11941e-08 -6.88866e-10 0.0
1.99134e-08 -7.27554e-10 0.0
1.8662e-08 -7.4499e-10 0.0
1.74142e-08 -7.51101e-10 0.0
1.61658e-08 -7.52404e-10 0.0
1.49166e-08 -7.52255e-10 0.0
1.36668e-08 -7.51868e-10 0.0
1.24168e-08 -7.51497e-10 0.0
1.11668e-08 -7.51193e-10 0.0
9.91668e-09 -7.50986e-10 0.0
8.66654e-09 -7.51137e-10 0.0
7.41665e-09 -7.52217e-10 0.0
6.16821e-09 -7.55087e-10 0.0
4.92516e-09 -7.5944e-10 0.0
3.69619e-09 -7.58446e-10 0.0
2.49515e-09 -7.20617e-10 0.0
1.31015e-09 -5.72383e-10 0.0
0 0 0.0
0 0 0.0
0 0 0.0
4.29067e-09 4.36835e-10 0.0
6.79119e-09 4.27806e-10 0.0
9.29106e-09 4.24595e-10 0.0
2.17916e-08 -3.39363e-10 0.0
1.92928e-08 -4.15258e-10 0.0
1.67918e-08 -4.27569e-10 0.0
1.42916e-08 -4.27308e-10 0.0
1.17916e-08 -4.26569e-10 0.0
3.11131e-09 -4.47969e-10 0.0
5.54132e-09 -4.32086e-10 0.0
8.17164e-09 -4.19823e-10 0.0
2.05401e-08 3.83122e-10 0.0
1.80413e-08 4.19858e-10 0.0
1.55411e-08 4.23453e-10 0.0
1.3041e-08 4.23725e-10 0.0
9.41469e-10 8.53037e-11 0.0
2.30193e-08 2.9449e-10 0.0
2.36085e-08 -1.94445e-10 0.0
9.44457e-10 -9.38875e-11 0.0
1.91538e-09 -9.07501e-12 0.0
1.92161e-09 3.5534e-10 0.0
3.10823e-09 1.73714e-10 0.0
2.17851e-08 3.34426e-10 0.0
2.11242e-08 8.84204e-11 0.0
1.99073e-08 1.08691e-10 0.0
2.05306e-08 -2.02587e-10 0.0
1.0541e-08 4.24174e-10 0.0
9.91636e-09 9.95629e-11 0.0
1.11663e-08 1.15174e-10 0.0
8.69347e-09 1.05343e-10 0.0
1.05415e-08 -2.25335e-10 0.0
2.23002e-08 9.23832e-11 0.0
1.92915e-08 4.13106e-10 0.0
1.8666e-08 1.14922e-10 0.0
1.74173e-08 1.16916e-10 0.0
1.80435e-08 -2.25018e-10 0.0
1.67912e-08 4.25997e-10 0.0
1.61669e-08 1.18009e-10 0.0
1.49165e-08 1.17755e-10 0.0
1.55419e-08 -2.26584e-10 0.0
1.4291e-08 4.26783e-10 0.0
1.36663e-08 1.18431e-10 0.0
1.24163e-08 1.20838e-10 0.0
1.30415e-08 -2.25917e-10 0.0
4.30274e-09 -4.44137e-10 0.0
4.89865e-09 -1.27407e-10 0.0
6.16224e-09 -1.2187e-10 0.0
5.53759e-09 2.2861e-10 0.0
6.79166e-09 -4.28177e-10 0.0
7.33306e-09 -1.40361e-10 0.0
9.19536e-09 -1.97866e-10 0.0
8.10231e-09 4.36138e-10 0.0
1.1791e-08 4.27121e-10 0.0
1.87621e-09 -3.44106e-10 0.0
2.31194e-08 -3.2968e-10 0.0
2.34671e-08 1.22365e-10 0.0
3.72359e-09 -1.49866e-10 0.0
3.0994e-09 5.02254e-10 0.0
4.28255e-09 1.16656e-10 0.0
9.50561e-09 -4.77679e-10 0.0
6.73744e-09 1.15775e-10 0.0
5.54234e-09 5.2748e-10 0.0
1.05845e-08 -5.2632e-10 0.0
1.17914e-08 -1.28354e-10 0.0
2.1693e-08 -9.61522e-11 0.0
2.05452e-08 -4.82817e-10 0.0
1.92904e-08 -1.26021e-10 0.0
1.80409e-08 -5.20031e-10 0.0
1.67926e-08 -1.2908e-10 0.0
1.55415e-08 -5.23011e-10 0.0
1.42916e-08 -1.28718e-10 0.0
1.30417e-08 -5.22247e-10 0.0
8.40095e-10 2.30014e-10 0.0
2.40277e-08 -4.33291e-10 0.0
2.40275e-08 4.24369e-10 0.0
8.38903e-10 -2.29155e-10 0.0
2.2686e-08 -1.00388e-10 0.0
7.70933e-09 1.44807e-10 0.0
8.27227e-09 -1.30267e-10 0.0
2.74249e-09 -1.64277e-10 0.0

SCALARS displacement_magnitude float 1
LOOKUP_TABLE default
0
2.6053e-08
2.60752e-08
0
1.43062e-09
2.59857e-09
3.77134e-09
4.98296e-09
6.21276e-09
7.45341e-09
8.69782e-09
9.94388e-09
1.11908e-08
1.24383e-08
1.36862e-08
1.49343e-08
1.61821e-08
1.74294e-08
1.86765e-08
1.99277e-08
2.12019e-08
2.25516e-08
2.40986e-08
2.46366e-08
2.4377e-08
2.46412e-08
2.41175e-08
2.25494e-08
2.12053e-08
1.99267e-08
1.86769e-08
1.74304e-08
1.61833e-08
1.49355e-08
1.36875e-08
1.24396e-08
1.1192e-08
9.94508e-09
8.69903e-09
7.4547e-09
6.21426e-09
4.98337e-09
3.7732e-09
2.59712e-09
1.42973e-09
0
0
0
4.31285e-09
6.80465e-09
9.30076e-09
2.17942e-08
1.92973e-08
1.67972e-08
1.4298e-08
1.17993e-08
3.1434e-09
5.55814e-09
8.18242e-09
2.05436e-08
1.80462e-08
1.55469e-08
1.30479e-08
9.45325e-10
2.30212e-08
2.36093e-08
9.49112e-10
1.9154e-09
1.95419e-09
3.11308e-09
2.17876e-08
2.11243e-08
1.99076e-08
2.05316e-08
1.05496e-08
9.91686e-09
1.11669e-08
8.69411e-09
1.05439e-08
2.23004e-08
1.92959e-08
1.86664e-08
1.74176e-08
1.80449e-08
1.67966e-08
1.61674e-08
1.4917e-08
1.55436e-08
1.42974e-08
1.36669e-08
1.24169e-08
1.30435e-08
4.3256e-09
4.9003e-09
6.16345e-09
5.54231e-09
6.80514e-09
7.3344e-09
9.19749e-09
8.11404e-09
1.17988e-08
1.90751e-09
2.31218e-08
2.34674e-08
3.72661e-09
3.13983e-09
4.28414e-09
9.5176e-09
6.73843e-09
5.56738e-09
1.05975e-08
1.17921e-08
2.16932e-08
2.05508e-08
1.92908e-08
1.80484e-08
1.67931e-08
1.55503e-08
1.42922e-08
1.30521e-08
8.71014e-10
2.40316e-08
2.40313e-08
8.69638e-10
2.26862e-08
7.71069e-09
8.27329e-09
2.7474e-09
